                         Program Version 4.2.1 -  RELEASE  -
|  1> # C-C6H3F2=P-tBu
|  2>
|  3> ! PBEh-3c TightSCF TightOpt
|  4> ! Grid6 GridX7 NoFinalGrid CPCM(toluene) Freq
|  5> ! PAL8
|  6>
|  7> %maxcore 3000
|  8> %scf maxiter 250 end
|  9>
| 10> *xyz 0 1
| 11>   C   0.00444591827306     -0.79327114800540      0.89248104692509
| 12>   H   0.22054148663014     -1.82040949898024      0.61353354411475
| 13>   P   -0.71051780258108      0.23742184239938     -0.21825316557875
| 14>   C   -0.93132910609063     -0.84804233620533     -1.75088911027859
| 15>   C   -1.57393439128153      0.05452110499005     -2.81487950601950
| 16>   H   -1.73410749794152     -0.51186455445684     -3.73658412369289
| 17>   H   -2.54170287215524      0.43771782000708     -2.48344820543977
| 18>   H   -0.93685140636606      0.90966390895399     -3.05195930984918
| 19>   C   0.42641186285602     -1.35106199772102     -2.25726588777382
| 20>   H   0.90368683653364     -2.02135163374125     -1.54134615398493
| 21>   H   0.28921250769986     -1.90344102438965     -3.19244336234472
| 22>   H   1.11222352340315     -0.52430482787966     -2.45386152317185
| 23>   C   -1.86231944628537     -2.02964621202769     -1.45097780281407
| 24>   H   -2.82819107299446     -1.69219898695401     -1.06897750448968
| 25>   H   -2.04471304611514     -2.59747593492201     -2.36895398472810
| 26>   H   -1.42908786083928     -2.71073495462129     -0.71734333455416
| 27>   C   0.40885889756983     -0.46115802549451      2.25222504052484
| 28>   C   1.05539382612092     -1.44290619598431      3.01660324787263
| 29>   C   0.18573751446362      0.80230722848821      2.82474944911041
| 30>   C   1.46036284826631     -1.14532378674785      4.30295048485869
| 31>   H   1.24531117004403     -2.42736115081894      2.61136116005750
| 32>   C   0.61033701526954      1.03801955559590      4.11212925839003
| 33>   H   -0.31079246182104      1.58995898158713      2.27516430915979
| 34>   C   1.25510751013836      0.08775771198918      4.89132955809711
| 35>   H   1.57710841551015      0.30202447290583      5.89994643107701
| 36>   F   0.39357914828130      2.25597143348312      4.65559541784298
| 37>   F   2.08799928341144     -2.10279024144983      5.02087320668920
| 38> *
| 39>
| 40>                          ****END OF INPUT****
 Total Charge           Charge          ....    0
 Multiplicity           Mult            ....    1
 Number of Electrons    NEL             ....  112
Dispersion correction           -0.017390145
FINAL SINGLE POINT ENERGY      -966.302246038977
Dispersion correction            ... done
Dispersion correction           -0.017412649
FINAL SINGLE POINT ENERGY      -966.302671275201
Dispersion correction            ... done
Dispersion correction           -0.017429357
FINAL SINGLE POINT ENERGY      -966.302245855468
Dispersion correction            ... done
FINAL SINGLE POINT ENERGY      -966.302768976430
FINAL SINGLE POINT ENERGY      -966.302736235836
FINAL SINGLE POINT ENERGY      -966.302790447247
FINAL SINGLE POINT ENERGY      -966.302791270147
FINAL SINGLE POINT ENERGY      -966.302792284328
FINAL SINGLE POINT ENERGY      -966.302792230875
FINAL SINGLE POINT ENERGY      -966.302792542231
Dispersion correction           -0.017408190
FINAL SINGLE POINT ENERGY      -966.302793663207
Dispersion correction            ... done
Dispersion correction           -0.017408572
FINAL SINGLE POINT ENERGY      -966.302793897649
Dispersion correction            ... done
                    ***********************HURRAY********************

CARTESIAN COORDINATES (ANGSTROEM)
---------------------------------
  C      0.034874   -0.813024    0.886851
  H      0.256116   -1.840117    0.608022
  P     -0.695615    0.216038   -0.207823
  C     -0.926351   -0.847701   -1.742425
  C     -1.599834    0.056492   -2.778760
  H     -1.767506   -0.495297   -3.706691
  H     -2.568567    0.420279   -2.431120
  H     -0.985652    0.926590   -3.018247
  C      0.423523   -1.322092   -2.280907
  H      0.930306   -1.992366   -1.585913
  H      0.278739   -1.867201   -3.217682
  H      1.095461   -0.487050   -2.485934
  C     -1.832092   -2.042505   -1.443809
  H     -2.796678   -1.730366   -1.040110
  H     -2.024315   -2.601584   -2.363655
  H     -1.380940   -2.731554   -0.729110
  C      0.430500   -0.471200    2.248300
  C      1.031205   -1.456994    3.035976
  C      0.230713    0.803835    2.791523
  C      1.413444   -1.154524    4.327617
  H      1.198696   -2.451540    2.643594
  C      0.630714    1.051070    4.084143
  H     -0.230910    1.593585    2.212643
  C      1.228186    0.093080    4.886763
  H      1.533749    0.313510    5.900475
  F      0.437999    2.270034    4.598378
  F      1.987007   -2.107378    5.069659

 Multiplicity           Mult            ....    1
 Number of Electrons    NEL             ....  112
 Basis Dimension        Dim             ....  239

ORBITAL ENERGIES
----------------

  NO   OCC          E(Eh)            E(eV)
   0   2.0000     -77.738276     -2115.3660
   1   2.0000     -25.120514      -683.5639
   2   2.0000     -25.119317      -683.5314
   3   2.0000     -10.550997      -287.1072
   4   2.0000     -10.550751      -287.1005
   5   2.0000     -10.486815      -285.3607
   6   2.0000     -10.471201      -284.9359
   7   2.0000     -10.468592      -284.8649
   8   2.0000     -10.463746      -284.7330
   9   2.0000     -10.461491      -284.6716
  10   2.0000     -10.459111      -284.6069
  11   2.0000     -10.431880      -283.8659
  12   2.0000     -10.431832      -283.8646
  13   2.0000     -10.430472      -283.8276
  14   2.0000      -6.812049      -185.3653
  15   2.0000      -4.902577      -133.4059
  16   2.0000      -4.902285      -133.3980
  17   2.0000      -4.900736      -133.3558
  18   2.0000      -1.364901       -37.1408
  19   2.0000      -1.363680       -37.1076
  20   2.0000      -0.987776       -26.8788
  21   2.0000      -0.917316       -24.9614
  22   2.0000      -0.891300       -24.2535
  23   2.0000      -0.856523       -23.3072
  24   2.0000      -0.804037       -21.8789
  25   2.0000      -0.774170       -21.0662
  26   2.0000      -0.772859       -21.0306
  27   2.0000      -0.720732       -19.6121
  28   2.0000      -0.713198       -19.4071
  29   2.0000      -0.663601       -18.0575
  30   2.0000      -0.622675       -16.9439
  31   2.0000      -0.611529       -16.6405
  32   2.0000      -0.581806       -15.8317
  33   2.0000      -0.579663       -15.7734
  34   2.0000      -0.562188       -15.2979
  35   2.0000      -0.560098       -15.2410
  36   2.0000      -0.547158       -14.8889
  37   2.0000      -0.519668       -14.1409
  38   2.0000      -0.514279       -13.9943
  39   2.0000      -0.507926       -13.8214
  40   2.0000      -0.501967       -13.6592
  41   2.0000      -0.486803       -13.2466
  42   2.0000      -0.462240       -12.5782
  43   2.0000      -0.450618       -12.2619
  44   2.0000      -0.446990       -12.1632
  45   2.0000      -0.445006       -12.1092
  46   2.0000      -0.434962       -11.8359
  47   2.0000      -0.434887       -11.8339
  48   2.0000      -0.422089       -11.4856
  49   2.0000      -0.394251       -10.7281
  50   2.0000      -0.390303       -10.6207
  51   2.0000      -0.371484       -10.1086
  52   2.0000      -0.349471        -9.5096
  53   2.0000      -0.301094        -8.1932
  54   2.0000      -0.299440        -8.1482
  55   2.0000      -0.267295        -7.2735
  56   0.0000      -0.064042        -1.7427
  57   0.0000       0.016633         0.4526
  58   0.0000       0.043578         1.1858
  59   0.0000       0.074830         2.0362
  60   0.0000       0.122398         3.3306

MULLIKEN ATOMIC CHARGES
-----------------------
   0 C :   -0.514200
   1 H :    0.259007
   2 P :    0.308611
   3 C :   -0.305408
   4 C :   -0.633600
   5 H :    0.230685
   6 H :    0.232794
   7 H :    0.232827
   8 C :   -0.620951
   9 H :    0.227517
  10 H :    0.226221
  11 H :    0.232122
  12 C :   -0.621031
  13 H :    0.232130
  14 H :    0.226246
  15 H :    0.227495
  16 C :    0.232295
  17 C :   -0.483434
  18 C :   -0.500397
  19 C :    0.574352
  20 H :    0.265177
  21 C :    0.587201
  22 H :    0.270929
  23 C :   -0.569072
  24 H :    0.290469
  25 F :   -0.304274
  26 F :   -0.303711
Sum of atomic charges:   -0.0000000

LOEWDIN ATOMIC CHARGES
----------------------
   0 C :   -0.309189
   1 H :    0.146137
   2 P :    0.321866
   3 C :   -0.223232
   4 C :   -0.360608
   5 H :    0.131727
   6 H :    0.132438
   7 H :    0.132450
   8 C :   -0.353071
   9 H :    0.128672
  10 H :    0.131167
  11 H :    0.132907
  12 C :   -0.353057
  13 H :    0.132900
  14 H :    0.131179
  15 H :    0.128632
  16 C :   -0.040953
  17 C :   -0.171107
  18 C :   -0.169571
  19 C :    0.158572
  20 H :    0.161527
  21 C :    0.160611
  22 H :    0.164456
  23 C :   -0.190352
  24 H :    0.174655
  25 F :   -0.149249
  26 F :   -0.149506

  Mayer bond orders larger than 0.100000
B(  0-C ,  1-H ) :   0.8824 B(  0-C ,  2-P ) :   1.7597 B(  0-C , 16-C ) :   1.0420
B(  2-P ,  3-C ) :   0.9191 B(  3-C ,  4-C ) :   0.9653 B(  3-C ,  8-C ) :   0.9621
B(  3-C , 12-C ) :   0.9621 B(  4-C ,  5-H ) :   0.9205 B(  4-C ,  6-H ) :   0.9223
B(  4-C ,  7-H ) :   0.9222 B(  8-C ,  9-H ) :   0.9222 B(  8-C , 10-H ) :   0.9174
B(  8-C , 11-H ) :   0.9226 B( 12-C , 13-H ) :   0.9227 B( 12-C , 14-H ) :   0.9174
B( 12-C , 15-H ) :   0.9221 B( 16-C , 17-C ) :   1.3131 B( 16-C , 18-C ) :   1.2992
B( 17-C , 19-C ) :   1.4010 B( 17-C , 20-H ) :   0.8984 B( 18-C , 21-C ) :   1.4305
B( 18-C , 22-H ) :   0.8935 B( 19-C , 23-C ) :   1.3625 B( 19-C , 26-F ) :   0.9665
B( 21-C , 23-C ) :   1.3287 B( 21-C , 25-F ) :   0.9639 B( 23-C , 24-H ) :   0.8861

Dispersion correction           -0.017408889
FINAL SINGLE POINT ENERGY      -966.302793015146

DIPOLE MOMENT
-------------
                                X             Y             Z
Electronic contribution:      8.89435       8.41249      31.24565
Nuclear contribution   :     -9.04623      -9.10837     -32.25226
                        -----------------------------------------
Total Dipole Moment    :     -0.15188      -0.69588      -1.00661
                        -----------------------------------------
Magnitude (a.u.)       :      1.23312
Magnitude (Debye)      :      3.13434

Dispersion correction in the Hessian             ... done   (      1.1 sec)

VIBRATIONAL FREQUENCIES
-----------------------

Scaling factor for frequencies =  1.000000000  (already applied!)

   0:         0.00 cm**-1
   1:         0.00 cm**-1
   2:         0.00 cm**-1
   3:         0.00 cm**-1
   4:         0.00 cm**-1
   5:         0.00 cm**-1
   6:        12.64 cm**-1
   7:        54.06 cm**-1
   8:        66.38 cm**-1
   9:        74.53 cm**-1
  10:       169.28 cm**-1
  11:       226.40 cm**-1
  12:       245.00 cm**-1
  13:       245.42 cm**-1
  14:       253.73 cm**-1
  15:       260.81 cm**-1
  16:       298.30 cm**-1
  17:       300.67 cm**-1
  18:       321.48 cm**-1
  19:       327.86 cm**-1
  20:       348.92 cm**-1
  21:       395.91 cm**-1
  22:       401.03 cm**-1
  23:       422.55 cm**-1
  24:       527.19 cm**-1
  25:       534.98 cm**-1
  26:       561.49 cm**-1
  27:       608.56 cm**-1
  28:       629.12 cm**-1
  29:       635.41 cm**-1
  30:       683.37 cm**-1
  31:       704.69 cm**-1
  32:       857.30 cm**-1
  33:       862.14 cm**-1
  34:       880.97 cm**-1
  35:       910.40 cm**-1
  36:       919.39 cm**-1
  37:       976.44 cm**-1
  38:       982.39 cm**-1
  39:       982.57 cm**-1
  40:       999.03 cm**-1
  41:      1043.45 cm**-1
  42:      1060.74 cm**-1
  43:      1069.72 cm**-1
  44:      1075.81 cm**-1
  45:      1111.50 cm**-1
  46:      1209.34 cm**-1
  47:      1219.91 cm**-1
  48:      1248.12 cm**-1
  49:      1270.22 cm**-1
  50:      1273.52 cm**-1
  51:      1291.67 cm**-1
  52:      1367.02 cm**-1
  53:      1403.26 cm**-1
  54:      1448.93 cm**-1
  55:      1452.57 cm**-1
  56:      1455.14 cm**-1
  57:      1477.81 cm**-1
  58:      1524.30 cm**-1
  59:      1525.25 cm**-1
  60:      1526.16 cm**-1
  61:      1545.35 cm**-1
  62:      1545.80 cm**-1
  63:      1552.33 cm**-1
  64:      1554.97 cm**-1
  65:      1560.53 cm**-1
  66:      1712.71 cm**-1
  67:      1728.67 cm**-1
  68:      3100.36 cm**-1
  69:      3100.91 cm**-1
  70:      3104.87 cm**-1
  71:      3178.03 cm**-1
  72:      3179.09 cm**-1
  73:      3183.73 cm**-1
  74:      3190.66 cm**-1
  75:      3198.33 cm**-1
  76:      3200.01 cm**-1
  77:      3217.20 cm**-1
  78:      3279.01 cm**-1
  79:      3284.69 cm**-1
  80:      3301.70 cm**-1

IR SPECTRUM
-----------

 Mode    freq (cm**-1)   T**2         TX         TY         TZ
-------------------------------------------------------------------
   6:        12.64    0.240237  ( -0.440017  -0.140184   0.164228)
   7:        54.06    1.355774  ( -1.050152  -0.329304   0.380149)
   8:        66.38    0.567937  (  0.679507   0.206178  -0.252384)
   9:        74.53    0.554189  (  0.230053   0.084633   0.702924)
  10:       169.28    0.170089  (  0.025479  -0.347376  -0.220838)
  11:       226.40    0.676238  (  0.741443   0.224369  -0.275968)
  12:       245.00    1.467482  ( -1.089220  -0.321215   0.421785)
  13:       245.42    0.205649  (  0.144458   0.258880   0.343165)
  14:       253.73    0.068764  ( -0.236250  -0.071633   0.088422)
  15:       260.81    0.738897  (  0.774705   0.244849  -0.280674)
  16:       298.30    0.393568  ( -0.200621  -0.084918  -0.588309)
  17:       300.67    0.484446  (  0.617748   0.209818  -0.242508)
  18:       321.48    1.184001  (  0.284325   0.278071   1.012836)
  19:       327.86    0.049967  (  0.204829   0.055546  -0.070192)
  20:       348.92    4.745303  (  0.647510   0.347982   2.050596)
  21:       395.91    0.156565  ( -0.129999  -0.016093  -0.373371)
  22:       401.03    0.165920  ( -0.367570  -0.114478   0.133070)
  23:       422.55    5.097429  (  0.626120   0.472572   2.117092)
  24:       527.19    3.569698  (  0.606320  -1.785023   0.125570)
  25:       534.98    5.504473  (  0.620656  -2.250622  -0.232290)
  26:       561.49    1.037101  (  0.430818  -0.364273   0.847822)
  27:       608.56   13.474142  ( -0.946062  -0.988295  -3.406227)
  28:       629.12    1.309260  (  1.025746   0.321073  -0.392450)
  29:       635.41    0.049932  (  0.196472   0.072041  -0.078360)
  30:       683.37   13.950989  (  1.555071  -1.246587   3.158918)
  31:       704.69   28.373995  (  4.796989   1.499109  -1.765096)
  32:       857.30   17.765471  ( -0.994441  -1.403665  -3.847893)
  33:       862.14    0.005810  ( -0.060476  -0.016380   0.043405)
  34:       880.97   96.159056  (  8.828254   2.773523  -3.244773)
  35:       910.40   46.600070  ( -6.144549  -1.932480   2.260554)
  36:       919.39   23.650496  ( -4.383267  -1.350586   1.616597)
  37:       976.44   26.265181  ( -1.874445   0.430802  -4.750373)
  38:       982.39    1.606971  ( -0.409565   1.199116  -0.036707)
  39:       982.57    3.127859  (  1.591379   0.510757  -0.578359)
  40:       999.03    0.107826  ( -0.297464  -0.086786   0.108669)
  41:      1043.45    0.406213  ( -0.279972   0.311762  -0.480243)
  42:      1060.74   76.412393  (  2.578432  -8.351475  -0.130149)
  43:      1069.72    0.718275  (  0.758837   0.198027  -0.321288)
  44:      1075.81   14.107551  (  0.088188  -2.976676  -2.288924)
  45:      1111.50    4.628739  (  0.931678  -1.089170   1.604501)
  46:      1209.34  100.033916  ( -3.323222   9.374899  -1.049465)
  47:      1219.91    1.711150  ( -0.077611  -0.883135  -0.961872)
  48:      1248.12   68.264709  (  2.405163   1.478777   7.764864)
  49:      1270.22    2.115767  ( -1.315412  -0.412043   0.464411)
  50:      1273.52    1.350641  ( -0.499052   0.524690  -0.909004)
  51:      1291.67    2.825574  ( -0.134905  -1.086834  -1.275212)
  52:      1367.02   33.350659  (  2.009342  -0.016080   5.414143)
  53:      1403.26   20.927994  ( -1.825408   1.010716  -4.071159)
  54:      1448.93   78.212956  (  2.891342   0.660999   8.331637)
  55:      1452.57   16.166536  ( -3.620279  -1.072335   1.382106)
  56:      1455.14   20.840851  (  0.858113  -4.331657  -1.158118)
  57:      1477.81    2.116349  (  0.094743  -1.233483  -0.765436)
  58:      1524.30    0.568741  ( -0.683411  -0.188053   0.257539)
  59:      1525.25    0.540769  ( -0.124467   0.707832   0.155724)
  60:      1526.16    0.009250  ( -0.086225  -0.017067   0.039033)
  61:      1545.35   72.275964  (  3.227238  -7.382248   2.713543)
  62:      1545.80   15.277516  (  3.617016   0.891854  -1.182923)
  63:      1552.33   17.501348  (  0.232359   2.806331   3.093843)
  64:      1554.97   50.155833  ( -2.326914   6.648995  -0.729499)
  65:      1560.53   32.208301  (  1.210379   2.159628   5.106789)
  66:      1712.71  255.379534  ( -5.840195  14.453792  -3.515614)
  67:      1728.67  238.861110  (  3.813103   4.623141  14.245979)
  68:      3100.36   26.040619  (  4.542731   1.592035  -1.694001)
  69:      3100.91   24.210761  (  1.688570  -4.618696   0.164726)
  70:      3104.87   54.422990  (  1.982301   1.774989   6.880617)
  71:      3178.03    6.808151  (  2.276459   0.688604  -1.073178)
  72:      3179.09   29.340515  (  1.563254   1.301179   5.020327)
  73:      3183.73   46.998467  ( -0.680898  -4.101702  -5.450769)
  74:      3190.66   20.250980  (  4.046466   1.311547  -1.468651)
  75:      3198.33    9.869974  ( -2.956551  -0.643297   0.845547)
  76:      3200.01   30.623267  (  2.221061  -4.016162   3.092022)
  77:      3217.20    5.155986  (  0.456647  -2.142022  -0.599336)
  78:      3279.01    1.355149  ( -0.476760   0.325505  -1.010888)
  79:      3284.69    0.708405  (  0.323406  -0.148882   0.762658)
  80:      3301.70    8.872352  (  0.894232   0.457824   2.804122)

--------------------------
THERMOCHEMISTRY AT 298.15K
--------------------------

Temperature         ... 298.15 K
Pressure            ... 1.00 atm
Total Mass          ... 214.19 AMU

Throughout the following assumptions are being made:
  (1) The electronic state is orbitally nondegenerate
  (2) There are no thermally accessible electronically excited states
  (3) Hindered rotations indicated by low frequency modes are not
      treated as such but are treated as vibrations and this may
      cause some error
  (4) All equations used are the standard statistical mechanics
      equations for an ideal gas
  (5) All vibrations are strictly harmonic

freq.      12.64  E(vib)   ...       0.57
freq.      54.06  E(vib)   ...       0.52
freq.      66.38  E(vib)   ...       0.50
freq.      74.53  E(vib)   ...       0.49
freq.     169.28  E(vib)   ...       0.38
freq.     226.40  E(vib)   ...       0.33
freq.     245.00  E(vib)   ...       0.31
freq.     245.42  E(vib)   ...       0.31
freq.     253.73  E(vib)   ...       0.30
freq.     260.81  E(vib)   ...       0.30
freq.     298.30  E(vib)   ...       0.26
freq.     300.67  E(vib)   ...       0.26
freq.     321.48  E(vib)   ...       0.25
freq.     327.86  E(vib)   ...       0.24
freq.     348.92  E(vib)   ...       0.23
freq.     395.91  E(vib)   ...       0.20
freq.     401.03  E(vib)   ...       0.19
freq.     422.55  E(vib)   ...       0.18
freq.     527.19  E(vib)   ...       0.13
freq.     534.98  E(vib)   ...       0.13
freq.     561.49  E(vib)   ...       0.11
freq.     608.56  E(vib)   ...       0.10
freq.     629.12  E(vib)   ...       0.09
freq.     635.41  E(vib)   ...       0.09
freq.     683.37  E(vib)   ...       0.08
freq.     704.69  E(vib)   ...       0.07
freq.     857.30  E(vib)   ...       0.04
freq.     862.14  E(vib)   ...       0.04
freq.     880.97  E(vib)   ...       0.04
freq.     910.40  E(vib)   ...       0.03
freq.     919.39  E(vib)   ...       0.03
freq.     976.44  E(vib)   ...       0.03
freq.     982.39  E(vib)   ...       0.02
freq.     982.57  E(vib)   ...       0.02
freq.     999.03  E(vib)   ...       0.02
freq.    1043.45  E(vib)   ...       0.02
freq.    1060.74  E(vib)   ...       0.02
freq.    1069.72  E(vib)   ...       0.02
freq.    1075.81  E(vib)   ...       0.02
freq.    1111.50  E(vib)   ...       0.01
freq.    1209.34  E(vib)   ...       0.01
freq.    1219.91  E(vib)   ...       0.01
freq.    1248.12  E(vib)   ...       0.01
freq.    1270.22  E(vib)   ...       0.01
freq.    1273.52  E(vib)   ...       0.01
freq.    1291.67  E(vib)   ...       0.01
freq.    1367.02  E(vib)   ...       0.01
freq.    1403.26  E(vib)   ...       0.00
freq.    1448.93  E(vib)   ...       0.00
freq.    1452.57  E(vib)   ...       0.00
freq.    1455.14  E(vib)   ...       0.00
freq.    1477.81  E(vib)   ...       0.00
freq.    1524.30  E(vib)   ...       0.00
freq.    1525.25  E(vib)   ...       0.00
freq.    1526.16  E(vib)   ...       0.00
freq.    1545.35  E(vib)   ...       0.00
freq.    1545.80  E(vib)   ...       0.00
freq.    1552.33  E(vib)   ...       0.00
freq.    1554.97  E(vib)   ...       0.00
freq.    1560.53  E(vib)   ...       0.00
freq.    1712.71  E(vib)   ...       0.00
freq.    1728.67  E(vib)   ...       0.00
freq.    3100.36  E(vib)   ...       0.00
freq.    3100.91  E(vib)   ...       0.00
freq.    3104.87  E(vib)   ...       0.00
freq.    3178.03  E(vib)   ...       0.00
freq.    3179.09  E(vib)   ...       0.00
freq.    3183.73  E(vib)   ...       0.00
freq.    3190.66  E(vib)   ...       0.00
freq.    3198.33  E(vib)   ...       0.00
freq.    3200.01  E(vib)   ...       0.00
freq.    3217.20  E(vib)   ...       0.00
freq.    3279.01  E(vib)   ...       0.00
freq.    3284.69  E(vib)   ...       0.00
freq.    3301.70  E(vib)   ...       0.00

------------
INNER ENERGY
------------

The inner energy is: U= E(el) + E(ZPE) + E(vib) + E(rot) + E(trans)
    E(el)   - is the total energy from the electronic structure calculation
              = E(kin-el) + E(nuc-el) + E(el-el) + E(nuc-nuc)
    E(ZPE)  - the the zero temperature vibrational energy from the frequency calculation
    E(vib)  - the the finite temperature correction to E(ZPE) due to population
              of excited vibrational states
    E(rot)  - is the rotational thermal energy
    E(trans)- is the translational thermal energy

Summary of contributions to the inner energy U:
Electronic energy                ...   -966.30279302 Eh
Zero point energy                ...      0.21973792 Eh     137.89 kcal/mol
Thermal vibrational correction   ...      0.01129086 Eh       7.09 kcal/mol
Thermal rotational correction    ...      0.00141627 Eh       0.89 kcal/mol
Thermal translational correction ...      0.00141627 Eh       0.89 kcal/mol
-----------------------------------------------------------------------
Total thermal energy                   -966.06893169 Eh

Summary of corrections to the electronic energy:
(perhaps to be used in another calculation)
Total thermal correction                  0.01412340 Eh       8.86 kcal/mol
Non-thermal (ZPE) correction              0.21973792 Eh     137.89 kcal/mol
-----------------------------------------------------------------------
Total correction                          0.23386132 Eh     146.75 kcal/mol

--------
ENTHALPY
--------

The enthalpy is H = U + kB*T
                kB is Boltzmann's constant
Total free energy                 ...   -966.06893169 Eh
Thermal Enthalpy correction       ...      0.00094421 Eh       0.59 kcal/mol
-----------------------------------------------------------------------
Total Enthalpy                    ...   -966.06798749 Eh

Note: Only C1 symmetry has been detected, increase convergence thresholds
      if your molecule has a higher symmetry. Symmetry factor of 1.0 is
      used for the rotational entropy correction.

Note: Rotational entropy computed according to Herzberg
Infrared and Raman Spectra, Chapter V,1, Van Nostrand Reinhold, 1945
Point Group:  C1, Symmetry Number:   1
Rotational constants in cm-1:     0.040793     0.008753     0.007566

Vibrational entropy computed according to the QRRHO of S. Grimme
Chem.Eur.J. 2012 18 9955

-------
ENTROPY
-------

The entropy contributions are T*S = T*(S(el)+S(vib)+S(rot)+S(trans))
     S(el)   - electronic entropy
     S(vib)  - vibrational entropy
     S(rot)  - rotational entropy
     S(trans)- translational entropy
The entropies will be listed as mutliplied by the temperature to get
units of energy

                             ****ORCA TERMINATED NORMALLY****
TOTAL RUN TIME: 0 days 0 hours 36 minutes 51 seconds 978 msec
