                         Program Version 4.2.1 -  RELEASE  -
|  1> # C-C6H4F2-P-tBu-oxaphosphirane
|  2> # After full opt. at CPCM(toluene)-RIJCOSX-B3LYP-D4/def2-TZVP (orca 4.2.1)
|  3> # C-O 1.43478 A
|  4> # C-O elongation scan from 1.43 to 4.43A (step +0.05A)
|  5> # taking maximum at scanpoint 17 for TS search
|  6> # After full TSopt. at CPCM(toluene)-RIJCOSX-B3LYP-D4/def2-TZVP (orca 4.2.1)
|  7>
|  8> ! PBEh-3c TightSCF TightOpt OptTS
|  9> ! Grid6 GridX7 NoFinalGrid CPCM(toluene) Freq
| 10> ! PAL8
| 11>
| 12> %geom Calc_Hess    true
| 13>       Recalc_Hess  35
| 14>       MaxIter  300
| 15>       TolE     2e-6 # Def 5e-6, Tight 1e-6
| 16>       TolRMSG  4e-5 # Def 1e-4, Tight 3e-5
| 17>       TolMaxG  1.5e-4 # Def 3e-3, Tight 1e-4
| 18>       TolRMSD  8e-4 # Def 2e-3, Tight 6e-4
| 19>       TolMaxD  2e-3 # Def 4e-3, Tight 1e-3
| 20>       end
| 21> %maxcore 2500
| 22> %scf maxiter 250 end
| 23>
| 24> *xyz 0 1
| 25>   C   1.31596405079079      0.76211606651380      0.07684068504875
| 26>   O   1.36688029092475      2.39018354430722     -1.46964938254480
| 27>   H   2.09416430812852      0.33725806936567     -0.54777613904570
| 28>   P   0.10454011826860      1.73673724151459     -0.84184506453784
| 29>   C   -0.66947327312448      0.47904525236114     -2.01806758938377
| 30>   C   -1.28899171983263      1.32584878406949     -3.13821675850593
| 31>   H   -1.78286792999943      0.67393676056149     -3.86438394231491
| 32>   H   -2.03235330176323      2.02604012345811     -2.75000951835020
| 33>   H   -0.52557879835813      1.89994257039435     -3.66814036834998
| 34>   C   0.36503722795777     -0.48303016984325     -2.60577339714506
| 35>   H   0.71934086857621     -1.19540076327695     -1.85921569279048
| 36>   H   -0.08035741557036     -1.05343175489845     -3.42684510029258
| 37>   H   1.22622052370113      0.05649341367375     -3.00532305257748
| 38>   C   -1.75612909719483     -0.27301617637656     -1.24551841551863
| 39>   H   -2.49125373200301      0.41354313928172     -0.81927004575458
| 40>   H   -2.28784248731118     -0.95599480982707     -1.91447925087989
| 41>   H   -1.33283235911816     -0.86730626907255     -0.43220375677003
| 42>   C   1.58655267133997      0.81981754910908      1.46944407263397
| 43>   C   2.71719045937316      0.13663305914398      1.96851510521517
| 44>   C   0.70063442255880      1.44894868760690      2.37040601276385
| 45>   C   2.90335718888398      0.06430981104218      3.32960216314698
| 46>   H   3.41924170167721     -0.33695238811867      1.29667114762988
| 47>   C   0.94504798232076      1.34163319187513      3.71897881818989
| 48>   H   -0.14275329230366      2.01944793926530      2.00757952734363
| 49>   C   2.03831140818715      0.65930442763453      4.23561029269732
| 50>   H   2.21642226303055      0.60892729963256      5.30056644368067
| 51>   F   0.10282679335664      1.92939632755828      4.58863217220742
| 52>   F   3.97271343750300     -0.59608343695589      3.81129707420435
| 53> *
| 54>
| 55>                          ****END OF INPUT****
 Total Charge           Charge          ....    0
 Multiplicity           Mult            ....    1
 Number of Electrons    NEL             ....  120
Dispersion correction           -0.018686399
FINAL SINGLE POINT ENERGY     -1041.310704557182
Dispersion correction            ... done
Dispersion correction in the Hessian             ... done   (      1.1 sec)
Dispersion correction           -0.018772163
FINAL SINGLE POINT ENERGY     -1041.310972378732
Dispersion correction            ... done
Dispersion correction           -0.018807181
FINAL SINGLE POINT ENERGY     -1041.311126960337
FINAL SINGLE POINT ENERGY     -1041.311145318238
Dispersion correction           -0.018803608
FINAL SINGLE POINT ENERGY     -1041.311147384096
Dispersion correction            ... done
Dispersion correction           -0.018803971
FINAL SINGLE POINT ENERGY     -1041.311148359018
Dispersion correction            ... done
                    ***********************HURRAY********************

CARTESIAN COORDINATES (ANGSTROEM)
---------------------------------
  C      1.423877    0.763830    0.024519
  O      1.535230    2.336785   -1.625049
  H      2.216515    0.297811   -0.554552
  P      0.271852    1.766694   -0.932163
  C     -0.613144    0.502323   -1.998351
  C     -1.407431    1.316963   -3.021047
  H     -1.954623    0.647747   -3.689488
  H     -2.134467    1.974841   -2.541008
  H     -0.753558    1.935111   -3.639447
  C      0.367280   -0.415517   -2.720140
  H      0.882382   -1.083036   -2.028121
  H     -0.165447   -1.039445   -3.442909
  H      1.120357    0.153007   -3.267280
  C     -1.559700   -0.290181   -1.101682
  H     -2.242988    0.361820   -0.553235
  H     -2.170207   -0.967297   -1.704272
  H     -1.017301   -0.896814   -0.374005
  C      1.621050    0.822315    1.432056
  C      2.678116    0.084990    1.995358
  C      0.713961    1.496867    2.268068
  C      2.772335    0.001426    3.364994
  H      3.396161   -0.420807    1.363602
  C      0.861636    1.381687    3.629726
  H     -0.069387    2.112608    1.845105
  C      1.879964    0.641295    4.208321
  H      1.984788    0.580149    5.283590
  F      0.006202    2.011086    4.434841
  F      3.760560   -0.707911    3.909995

 Multiplicity           Mult            ....    1
 Number of Electrons    NEL             ....  120
 Basis Dimension        Dim             ....  254

ORBITAL ENERGIES
----------------

  NO   OCC          E(Eh)            E(eV)
   0   2.0000     -77.769481     -2116.2152
   1   2.0000     -25.135505      -683.9719
   2   2.0000     -25.134322      -683.9397
   3   2.0000     -19.459045      -529.5075
   4   2.0000     -10.569488      -287.6104
   5   2.0000     -10.568940      -287.5955
   6   2.0000     -10.515892      -286.1520
   7   2.0000     -10.502840      -285.7968
   8   2.0000     -10.490578      -285.4631
   9   2.0000     -10.487583      -285.3816
  10   2.0000     -10.484670      -285.3024
  11   2.0000     -10.459974      -284.6304
  12   2.0000     -10.430196      -283.8201
  13   2.0000     -10.426876      -283.7297
  14   2.0000     -10.425561      -283.6939
  15   2.0000      -6.835252      -185.9967
  16   2.0000      -4.926837      -134.0661
  17   2.0000      -4.926175      -134.0480
  18   2.0000      -4.924800      -134.0106
  19   2.0000      -1.381155       -37.5831
  20   2.0000      -1.379938       -37.5500
  21   2.0000      -1.056539       -28.7499
  22   2.0000      -1.008540       -27.4438
  23   2.0000      -0.914212       -24.8770
  24   2.0000      -0.906372       -24.6636
  25   2.0000      -0.878259       -23.8986
  26   2.0000      -0.808583       -22.0027
  27   2.0000      -0.772037       -21.0082
  28   2.0000      -0.769092       -20.9281
  29   2.0000      -0.736283       -20.0353
  30   2.0000      -0.716179       -19.4882
  31   2.0000      -0.669419       -18.2158
  32   2.0000      -0.638089       -17.3633
  33   2.0000      -0.626593       -17.0505
  34   2.0000      -0.598613       -16.2891
  35   2.0000      -0.596844       -16.2410
  36   2.0000      -0.575846       -15.6696
  37   2.0000      -0.569295       -15.4913
  38   2.0000      -0.562402       -15.3037
  39   2.0000      -0.533612       -14.5203
  40   2.0000      -0.525498       -14.2995
  41   2.0000      -0.517474       -14.0812
  42   2.0000      -0.499153       -13.5826
  43   2.0000      -0.498032       -13.5522
  44   2.0000      -0.483027       -13.1438
  45   2.0000      -0.463767       -12.6197
  46   2.0000      -0.461306       -12.5528
  47   2.0000      -0.450956       -12.2711
  48   2.0000      -0.450129       -12.2486
  49   2.0000      -0.441176       -12.0050
  50   2.0000      -0.422898       -11.5077
  51   2.0000      -0.418079       -11.3765
  52   2.0000      -0.396557       -10.7909
  53   2.0000      -0.387742       -10.5510
  54   2.0000      -0.383753       -10.4425
  55   2.0000      -0.367509       -10.0004
  56   2.0000      -0.352943        -9.6041
  57   2.0000      -0.318348        -8.6627
  58   2.0000      -0.301489        -8.2039
  59   2.0000      -0.243841        -6.6353
  60   0.0000      -0.120173        -3.2701
  61   0.0000      -0.001427        -0.0388
  62   0.0000       0.019790         0.5385
  63   0.0000       0.067556         1.8383
  64   0.0000       0.113034         3.0758

MULLIKEN ATOMIC CHARGES
-----------------------
   0 C :   -0.439419
   1 O :   -0.644200
   2 H :    0.300328
   3 P :    0.719474
   4 C :   -0.317184
   5 C :   -0.647583
   6 H :    0.231633
   7 H :    0.230950
   8 H :    0.239749
   9 C :   -0.630077
  10 H :    0.219067
  11 H :    0.228098
  12 H :    0.242324
  13 C :   -0.641413
  14 H :    0.230570
  15 H :    0.234307
  16 H :    0.228214
  17 C :    0.186036
  18 C :   -0.441866
  19 C :   -0.457748
  20 C :    0.575377
  21 H :    0.288337
  22 C :    0.590768
  23 H :    0.291327
  24 C :   -0.537047
  25 H :    0.308359
  26 F :   -0.294235
  27 F :   -0.294145
Sum of atomic charges:   -0.0000000

LOEWDIN ATOMIC CHARGES
----------------------
   0 C :   -0.130196
   1 O :   -0.520436
   2 H :    0.166829
   3 P :    0.505905
   4 C :   -0.231351
   5 C :   -0.362016
   6 H :    0.132862
   7 H :    0.131971
   8 H :    0.136014
   9 C :   -0.356105
  10 H :    0.126469
  11 H :    0.131451
  12 H :    0.137360
  13 C :   -0.358725
  14 H :    0.131884
  15 H :    0.134794
  16 H :    0.130392
  17 C :   -0.070048
  18 C :   -0.127030
  19 C :   -0.130421
  20 C :    0.156321
  21 H :    0.173123
  22 C :    0.158050
  23 H :    0.173590
  24 C :   -0.144671
  25 H :    0.182977
  26 F :   -0.139181
  27 F :   -0.139809

  Mayer bond orders larger than 0.100000
B(  0-C ,  1-O ) :   0.3770 B(  0-C ,  2-H ) :   0.8737 B(  0-C ,  3-P ) :   1.0294
B(  0-C , 17-C ) :   1.0964 B(  1-O ,  3-P ) :   1.4016 B(  3-P ,  4-C ) :   0.8365
B(  4-C ,  5-C ) :   0.9664 B(  4-C ,  9-C ) :   0.9584 B(  4-C , 13-C ) :   0.9571
B(  5-C ,  6-H ) :   0.9190 B(  5-C ,  7-H ) :   0.9219 B(  5-C ,  8-H ) :   0.9168
B(  9-C , 10-H ) :   0.9257 B(  9-C , 11-H ) :   0.9208 B(  9-C , 12-H ) :   0.9139
B( 13-C , 14-H ) :   0.9210 B( 13-C , 15-H ) :   0.9195 B( 13-C , 16-H ) :   0.9228
B( 17-C , 18-C ) :   1.2523 B( 17-C , 19-C ) :   1.2622 B( 18-C , 20-C ) :   1.4205
B( 18-C , 21-H ) :   0.8900 B( 19-C , 22-C ) :   1.4166 B( 19-C , 23-H ) :   0.8774
B( 20-C , 24-C ) :   1.3343 B( 20-C , 27-F ) :   0.9756 B( 22-C , 24-C ) :   1.3266
B( 22-C , 26-F ) :   0.9747 B( 24-C , 25-H ) :   0.8785

Dispersion correction           -0.018803900
FINAL SINGLE POINT ENERGY     -1041.311148871933

DIPOLE MOMENT
-------------
                                X             Y             Z
Electronic contribution:     12.77983       5.94729      28.10352
Nuclear contribution   :    -13.13772      -7.39234     -27.10453
                        -----------------------------------------
Total Dipole Moment    :     -0.35789      -1.44505       0.99899
                        -----------------------------------------
Magnitude (a.u.)       :      1.79283
Magnitude (Debye)      :      4.55701

Dispersion correction in the Hessian             ... done   (      1.9 sec)

VIBRATIONAL FREQUENCIES
-----------------------

Scaling factor for frequencies =  1.000000000  (already applied!)

   0:         0.00 cm**-1
   1:         0.00 cm**-1
   2:         0.00 cm**-1
   3:         0.00 cm**-1
   4:         0.00 cm**-1
   5:         0.00 cm**-1
   6:      -290.94 cm**-1 ***imaginary mode***
   7:        31.65 cm**-1
   8:        44.35 cm**-1
   9:        56.70 cm**-1
  10:       106.00 cm**-1
  11:       138.97 cm**-1
  12:       206.02 cm**-1
  13:       227.08 cm**-1
  14:       239.29 cm**-1
  15:       243.89 cm**-1
  16:       264.33 cm**-1
  17:       267.18 cm**-1
  18:       292.67 cm**-1
  19:       302.92 cm**-1
  20:       308.54 cm**-1
  21:       347.69 cm**-1
  22:       371.46 cm**-1
  23:       386.91 cm**-1
  24:       407.59 cm**-1
  25:       448.33 cm**-1
  26:       513.05 cm**-1
  27:       523.33 cm**-1
  28:       552.19 cm**-1
  29:       598.03 cm**-1
  30:       612.86 cm**-1
  31:       625.46 cm**-1
  32:       654.37 cm**-1
  33:       690.10 cm**-1
  34:       805.91 cm**-1
  35:       844.29 cm**-1
  36:       853.75 cm**-1
  37:       898.12 cm**-1
  38:       922.42 cm**-1
  39:       928.71 cm**-1
  40:       981.92 cm**-1
  41:       989.23 cm**-1
  42:       999.32 cm**-1
  43:      1039.04 cm**-1
  44:      1058.40 cm**-1
  45:      1064.20 cm**-1
  46:      1066.94 cm**-1
  47:      1071.00 cm**-1
  48:      1085.02 cm**-1
  49:      1216.41 cm**-1
  50:      1224.64 cm**-1
  51:      1246.77 cm**-1
  52:      1272.03 cm**-1
  53:      1283.75 cm**-1
  54:      1286.12 cm**-1
  55:      1341.87 cm**-1
  56:      1416.68 cm**-1
  57:      1446.73 cm**-1
  58:      1447.93 cm**-1
  59:      1449.65 cm**-1
  60:      1472.09 cm**-1
  61:      1523.97 cm**-1
  62:      1528.29 cm**-1
  63:      1530.29 cm**-1
  64:      1534.59 cm**-1
  65:      1544.18 cm**-1
  66:      1546.53 cm**-1
  67:      1550.03 cm**-1
  68:      1555.88 cm**-1
  69:      1704.31 cm**-1
  70:      1712.60 cm**-1
  71:      3099.27 cm**-1
  72:      3100.17 cm**-1
  73:      3103.84 cm**-1
  74:      3177.43 cm**-1
  75:      3178.05 cm**-1
  76:      3181.04 cm**-1
  77:      3186.72 cm**-1
  78:      3190.26 cm**-1
  79:      3202.04 cm**-1
  80:      3239.46 cm**-1
  81:      3284.58 cm**-1
  82:      3292.57 cm**-1
  83:      3297.74 cm**-1

IR SPECTRUM
-----------

 Mode    freq (cm**-1)   T**2         TX         TY         TZ
-------------------------------------------------------------------
   7:        31.65    0.164675  (  0.247132  -0.244694  -0.209107)
   8:        44.35    1.351569  ( -0.949301   0.591015   0.317960)
   9:        56.70    0.639000  (  0.237059  -0.098065   0.757091)
  10:       106.00    4.474918  (  1.085968  -0.426334  -1.764605)
  11:       138.97    1.985365  ( -0.491024   1.318292  -0.079801)
  12:       206.02   16.144828  ( -0.493612  -0.851129  -3.895736)
  13:       227.08    0.224138  (  0.257515  -0.167053   0.360441)
  14:       239.29    2.003874  ( -0.930998  -0.431812  -0.975015)
  15:       243.89    0.642268  (  0.114994   0.575776  -0.545460)
  16:       264.33    0.207439  ( -0.105219   0.229181  -0.379267)
  17:       267.18    1.820976  ( -0.535784  -0.396722  -1.173253)
  18:       292.67    6.305468  (  0.929147   0.278807   2.316122)
  19:       302.92    3.733927  ( -1.196487   0.016330  -1.517260)
  20:       308.54   18.224318  (  1.954672  -0.774223   3.715394)
  21:       347.69   12.908388  ( -0.486366   0.170457  -3.555669)
  22:       371.46    8.263862  ( -0.756686   0.923277  -2.615119)
  23:       386.91    0.980968  ( -0.275957  -0.951179   0.008654)
  24:       407.59   35.968976  ( -2.255762   0.991657  -5.467827)
  25:       448.33   38.731184  (  3.045114   0.591692   5.395217)
  26:       513.05    1.868712  (  1.109342  -0.593189   0.534976)
  27:       523.33    4.292583  ( -1.285778   1.183991   1.112440)
  28:       552.19    5.319312  (  1.486966  -0.917225   1.505637)
  29:       598.03   35.177918  (  1.868490   0.967824   5.545266)
  30:       612.86    6.042425  (  1.443437  -1.636299   1.132006)
  31:       625.46    3.065940  (  1.014841   0.351013   1.383050)
  32:       654.37    5.982709  (  2.239251   0.299271  -0.937497)
  33:       690.10   36.349607  ( -0.481758  -5.535513   2.340002)
  34:       805.91   58.515418  (  4.662268   3.470413   4.973420)
  35:       844.29   28.028659  (  2.580867   0.179010   4.619063)
  36:       853.75  126.867886  ( -5.261630   5.366765  -8.389337)
  37:       898.12  133.832034  (  4.370283  10.239135  -3.145279)
  38:       922.42   15.313802  (  0.999394  -2.200794   3.077583)
  39:       928.71    1.288148  ( -0.104776  -0.897026  -0.687397)
  40:       981.92    2.211631  (  0.614918  -1.337941   0.208378)
  41:       989.23    1.879891  (  1.076193   0.511299  -0.678435)
  42:       999.32    0.122345  (  0.052575  -0.267816  -0.218760)
  43:      1039.04    0.737945  (  0.283996  -0.077160   0.807055)
  44:      1058.40   51.908075  (  4.015059   0.186930  -5.979334)
  45:      1064.20   40.479035  ( -3.103560   2.378756   5.018811)
  46:      1066.94   41.781490  (  5.010913  -3.135236   2.615825)
  47:      1071.00   34.875056  (  0.588398   4.618873  -3.632472)
  48:      1085.02   23.215318  (  1.397223   4.490437  -1.048363)
  49:      1216.41   82.204554  ( -6.909092   5.357715   2.400810)
  50:      1224.64   32.661931  ( -2.887439   1.187573  -4.786888)
  51:      1246.77  124.343368  (  6.430797   1.003918   9.054301)
  52:      1272.03    3.615397  ( -0.478438   1.348085  -1.252661)
  53:      1283.75    4.956250  ( -2.145565  -0.343480  -0.484584)
  54:      1286.12    1.669884  ( -0.951025  -0.671617  -0.560683)
  55:      1341.87   21.296928  (  3.055129   0.099281   3.457348)
  56:      1416.68   43.402009  ( -5.312771   3.662172  -1.328523)
  57:      1446.73  158.283246  ( -5.401197   3.616068 -10.771925)
  58:      1447.93  368.220837  ( -0.665538  -1.723493  19.099934)
  59:      1449.65   16.225264  (  0.956700   2.005961   3.359481)
  60:      1472.09    3.281158  (  0.184854   1.668370  -0.680829)
  61:      1523.97    0.829731  (  0.891940  -0.084789   0.164269)
  62:      1528.29    0.772593  ( -0.650475   0.585197  -0.083780)
  63:      1530.29    9.667625  (  2.788952  -1.373599   0.050952)
  64:      1534.59  112.031914  ( -7.979500   6.944723   0.360982)
  65:      1544.18   20.310638  ( -1.522745   2.985348  -3.013235)
  66:      1546.53   22.001887  (  3.333428  -0.573509  -3.249805)
  67:      1550.03    2.243728  ( -0.594141  -0.107682  -1.370813)
  68:      1555.88   18.024410  (  2.342111   2.643799   2.355685)
  69:      1704.31  241.015849  (-12.413483   9.205903   1.473981)
  70:      1712.60   32.830412  (  0.732163  -0.039136   5.682677)
  71:      3099.27   20.287361  (  2.211254   2.886887  -2.657743)
  72:      3100.17   26.269675  ( -4.339652   2.708106  -0.321344)
  73:      3103.84   59.549385  (  3.185333   3.009788   6.351710)
  74:      3177.43   17.295605  ( -0.683303  -2.283186  -3.408191)
  75:      3178.05    5.642625  (  2.049827  -0.329740   1.154168)
  76:      3181.04   37.897732  ( -2.895107  -4.065848  -3.603466)
  77:      3186.72   18.443486  (  3.318682  -2.479762   1.131644)
  78:      3190.26   18.069207  ( -3.416440   0.620404   2.451988)
  79:      3202.04   16.701185  ( -0.481607  -2.550081   3.156949)
  80:      3239.46   12.446391  ( -0.848683   0.296933  -3.411445)
  81:      3284.58    6.144521  ( -1.491548   0.776626  -1.821170)
  82:      3292.57    2.276430  ( -0.405055   0.402450   1.396565)
  83:      3297.74   16.585427  (  0.833127  -0.442934   3.961709)

--------------------------
THERMOCHEMISTRY AT 298.15K
--------------------------

Temperature         ... 298.15 K
Pressure            ... 1.00 atm
Total Mass          ... 230.19 AMU

Throughout the following assumptions are being made:
  (1) The electronic state is orbitally nondegenerate
  (2) There are no thermally accessible electronically excited states
  (3) Hindered rotations indicated by low frequency modes are not
      treated as such but are treated as vibrations and this may
      cause some error
  (4) All equations used are the standard statistical mechanics
      equations for an ideal gas
  (5) All vibrations are strictly harmonic

freq.      31.65  E(vib)   ...       0.55
freq.      44.35  E(vib)   ...       0.53
freq.      56.70  E(vib)   ...       0.52
freq.     106.00  E(vib)   ...       0.45
freq.     138.97  E(vib)   ...       0.42
freq.     206.02  E(vib)   ...       0.35
freq.     227.08  E(vib)   ...       0.33
freq.     239.29  E(vib)   ...       0.31
freq.     243.89  E(vib)   ...       0.31
freq.     264.33  E(vib)   ...       0.29
freq.     267.18  E(vib)   ...       0.29
freq.     292.67  E(vib)   ...       0.27
freq.     302.92  E(vib)   ...       0.26
freq.     308.54  E(vib)   ...       0.26
freq.     347.69  E(vib)   ...       0.23
freq.     371.46  E(vib)   ...       0.21
freq.     386.91  E(vib)   ...       0.20
freq.     407.59  E(vib)   ...       0.19
freq.     448.33  E(vib)   ...       0.17
freq.     513.05  E(vib)   ...       0.13
freq.     523.33  E(vib)   ...       0.13
freq.     552.19  E(vib)   ...       0.12
freq.     598.03  E(vib)   ...       0.10
freq.     612.86  E(vib)   ...       0.10
freq.     625.46  E(vib)   ...       0.09
freq.     654.37  E(vib)   ...       0.08
freq.     690.10  E(vib)   ...       0.07
freq.     805.91  E(vib)   ...       0.05
freq.     844.29  E(vib)   ...       0.04
freq.     853.75  E(vib)   ...       0.04
freq.     898.12  E(vib)   ...       0.03
freq.     922.42  E(vib)   ...       0.03
freq.     928.71  E(vib)   ...       0.03
freq.     981.92  E(vib)   ...       0.02
freq.     989.23  E(vib)   ...       0.02
freq.     999.32  E(vib)   ...       0.02
freq.    1039.04  E(vib)   ...       0.02
freq.    1058.40  E(vib)   ...       0.02
freq.    1064.20  E(vib)   ...       0.02
freq.    1066.94  E(vib)   ...       0.02
freq.    1071.00  E(vib)   ...       0.02
freq.    1085.02  E(vib)   ...       0.02
freq.    1216.41  E(vib)   ...       0.01
freq.    1224.64  E(vib)   ...       0.01
freq.    1246.77  E(vib)   ...       0.01
freq.    1272.03  E(vib)   ...       0.01
freq.    1283.75  E(vib)   ...       0.01
freq.    1286.12  E(vib)   ...       0.01
freq.    1341.87  E(vib)   ...       0.01
freq.    1416.68  E(vib)   ...       0.00
freq.    1446.73  E(vib)   ...       0.00
freq.    1447.93  E(vib)   ...       0.00
freq.    1449.65  E(vib)   ...       0.00
freq.    1472.09  E(vib)   ...       0.00
freq.    1523.97  E(vib)   ...       0.00
freq.    1528.29  E(vib)   ...       0.00
freq.    1530.29  E(vib)   ...       0.00
freq.    1534.59  E(vib)   ...       0.00
freq.    1544.18  E(vib)   ...       0.00
freq.    1546.53  E(vib)   ...       0.00
freq.    1550.03  E(vib)   ...       0.00
freq.    1555.88  E(vib)   ...       0.00
freq.    1704.31  E(vib)   ...       0.00
freq.    1712.60  E(vib)   ...       0.00
freq.    3099.27  E(vib)   ...       0.00
freq.    3100.17  E(vib)   ...       0.00
freq.    3103.84  E(vib)   ...       0.00
freq.    3177.43  E(vib)   ...       0.00
freq.    3178.05  E(vib)   ...       0.00
freq.    3181.04  E(vib)   ...       0.00
freq.    3186.72  E(vib)   ...       0.00
freq.    3190.26  E(vib)   ...       0.00
freq.    3202.04  E(vib)   ...       0.00
freq.    3239.46  E(vib)   ...       0.00
freq.    3284.58  E(vib)   ...       0.00
freq.    3292.57  E(vib)   ...       0.00
freq.    3297.74  E(vib)   ...       0.00

------------
INNER ENERGY
------------

The inner energy is: U= E(el) + E(ZPE) + E(vib) + E(rot) + E(trans)
    E(el)   - is the total energy from the electronic structure calculation
              = E(kin-el) + E(nuc-el) + E(el-el) + E(nuc-nuc)
    E(ZPE)  - the the zero temperature vibrational energy from the frequency calculation
    E(vib)  - the the finite temperature correction to E(ZPE) due to population
              of excited vibrational states
    E(rot)  - is the rotational thermal energy
    E(trans)- is the translational thermal energy

Summary of contributions to the inner energy U:
Electronic energy                ...  -1041.31114887 Eh
Zero point energy                ...      0.22197952 Eh     139.29 kcal/mol
Thermal vibrational correction   ...      0.01189837 Eh       7.47 kcal/mol
Thermal rotational correction    ...      0.00141627 Eh       0.89 kcal/mol
Thermal translational correction ...      0.00141627 Eh       0.89 kcal/mol
-----------------------------------------------------------------------
Total thermal energy                  -1041.07443844 Eh

Summary of corrections to the electronic energy:
(perhaps to be used in another calculation)
Total thermal correction                  0.01473091 Eh       9.24 kcal/mol
Non-thermal (ZPE) correction              0.22197952 Eh     139.29 kcal/mol
-----------------------------------------------------------------------
Total correction                          0.23671043 Eh     148.54 kcal/mol

--------
ENTHALPY
--------

The enthalpy is H = U + kB*T
                kB is Boltzmann's constant
Total free energy                 ...  -1041.07443844 Eh
Thermal Enthalpy correction       ...      0.00094421 Eh       0.59 kcal/mol
-----------------------------------------------------------------------
Total Enthalpy                    ...  -1041.07349423 Eh

Note: Only C1 symmetry has been detected, increase convergence thresholds
      if your molecule has a higher symmetry. Symmetry factor of 1.0 is
      used for the rotational entropy correction.

Note: Rotational entropy computed according to Herzberg
Infrared and Raman Spectra, Chapter V,1, Van Nostrand Reinhold, 1945
Point Group:  C1, Symmetry Number:   1
Rotational constants in cm-1:     0.032914     0.008596     0.007844

Vibrational entropy computed according to the QRRHO of S. Grimme
Chem.Eur.J. 2012 18 9955

-------
ENTROPY
-------

The entropy contributions are T*S = T*(S(el)+S(vib)+S(rot)+S(trans))
     S(el)   - electronic entropy
     S(vib)  - vibrational entropy
     S(rot)  - rotational entropy
     S(trans)- translational entropy

                             ****ORCA TERMINATED NORMALLY****
TOTAL RUN TIME: 0 days 1 hours 30 minutes 2 seconds 904 msec
